
     Program PWSCF v.6.6 starts on 23Jan2024 at 18:40:59 

     This program is part of the open-source Quantum ESPRESSO suite
     for quantum simulation of materials; please cite
         "P. Giannozzi et al., J. Phys.:Condens. Matter 21 395502 (2009);
         "P. Giannozzi et al., J. Phys.:Condens. Matter 29 465901 (2017);
          URL http://www.quantum-espresso.org", 
     in publications or presentations arising from this work. More details at
     http://www.quantum-espresso.org/quote

     Parallel version (MPI), running on     1 processors

     MPI processes distributed on     1 nodes
     Fft bands division:     nmany     =       1
     Reading input from KPbI3.pwi
Warning: card &CELL ignored
Warning: card / ignored

     Current dimensions of program PWSCF are:
     Max number of different atomic species (ntypx) = 10
     Max number of k-points (npk) =  40000
     Max angular momentum in pseudopotentials (lmaxx) =  3

     Program PWSCF v.6.6 starts on 23Jan2024 at 18:40:59 

     This program is part of the open-source Quantum ESPRESSO suite
     for quantum simulation of materials; please cite
         "P. Giannozzi et al., J. Phys.:Condens. Matter 21 395502 (2009);
         "P. Giannozzi et al., J. Phys.:Condens. Matter 29 465901 (2017);
          URL http://www.quantum-espresso.org", 
     in publications or presentations arising from this work. More details at
     http://www.quantum-espresso.org/quote

     Parallel version (MPI), running on     1 processors

     MPI processes distributed on     1 nodes
     Fft bands division:     nmany     =       1
     Reading input from KPbI3.pwi
Warning: card &CELL ignored
Warning: card / ignored

     Current dimensions of program PWSCF are:
     Max number of different atomic species (ntypx) = 10
     Max number of k-points (npk) =  40000
     Max angular momentum in pseudopotentials (lmaxx) =  3

     Program PWSCF v.6.6 starts on 23Jan2024 at 18:40:59 

     This program is part of the open-source Quantum ESPRESSO suite
     for quantum simulation of materials; please cite
         "P. Giannozzi et al., J. Phys.:Condens. Matter 21 395502 (2009);
         "P. Giannozzi et al., J. Phys.:Condens. Matter 29 465901 (2017);
          URL http://www.quantum-espresso.org", 
     in publications or presentations arising from this work. More details at
     http://www.quantum-espresso.org/quote

     Parallel version (MPI), running on     1 processors

     MPI processes distributed on     1 nodes
     Fft bands division:     nmany     =       1
     Reading input from KPbI3.pwi
Warning: card &CELL ignored
Warning: card / ignored

     Current dimensions of program PWSCF are:
     Max number of different atomic species (ntypx) = 10
     Max number of k-points (npk) =  40000
     Max angular momentum in pseudopotentials (lmaxx) =  3

     Program PWSCF v.6.6 starts on 23Jan2024 at 18:40:59 

     This program is part of the open-source Quantum ESPRESSO suite
     for quantum simulation of materials; please cite
         "P. Giannozzi et al., J. Phys.:Condens. Matter 21 395502 (2009);
         "P. Giannozzi et al., J. Phys.:Condens. Matter 29 465901 (2017);
          URL http://www.quantum-espresso.org", 
     in publications or presentations arising from this work. More details at
     http://www.quantum-espresso.org/quote

     Parallel version (MPI), running on     1 processors

     MPI processes distributed on     1 nodes
     Fft bands division:     nmany     =       1
     Reading input from KPbI3.pwi
Warning: card &CELL ignored
Warning: card / ignored

     Current dimensions of program PWSCF are:
     Max number of different atomic species (ntypx) = 10
     Max number of k-points (npk) =  40000
     Max angular momentum in pseudopotentials (lmaxx) =  3

     Program PWSCF v.6.6 starts on 23Jan2024 at 18:40:59 

     This program is part of the open-source Quantum ESPRESSO suite
     for quantum simulation of materials; please cite
         "P. Giannozzi et al., J. Phys.:Condens. Matter 21 395502 (2009);
         "P. Giannozzi et al., J. Phys.:Condens. Matter 29 465901 (2017);
          URL http://www.quantum-espresso.org", 
     in publications or presentations arising from this work. More details at
     http://www.quantum-espresso.org/quote

     Parallel version (MPI), running on     1 processors

     MPI processes distributed on     1 nodes
     Fft bands division:     nmany     =       1
     Reading input from KPbI3.pwi
Warning: card &CELL ignored
Warning: card / ignored

     Current dimensions of program PWSCF are:
     Max number of different atomic species (ntypx) = 10
     Max number of k-points (npk) =  40000
     Max angular momentum in pseudopotentials (lmaxx) =  3

     Program PWSCF v.6.6 starts on 23Jan2024 at 18:40:59 

     This program is part of the open-source Quantum ESPRESSO suite
     for quantum simulation of materials; please cite
         "P. Giannozzi et al., J. Phys.:Condens. Matter 21 395502 (2009);
         "P. Giannozzi et al., J. Phys.:Condens. Matter 29 465901 (2017);
          URL http://www.quantum-espresso.org", 
     in publications or presentations arising from this work. More details at
     http://www.quantum-espresso.org/quote

     Parallel version (MPI), running on     1 processors

     MPI processes distributed on     1 nodes
     Fft bands division:     nmany     =       1
     Reading input from KPbI3.pwi
Warning: card &CELL ignored
Warning: card / ignored

     Current dimensions of program PWSCF are:
     Max number of different atomic species (ntypx) = 10
     Max number of k-points (npk) =  40000
     Max angular momentum in pseudopotentials (lmaxx) =  3

     Program PWSCF v.6.6 starts on 23Jan2024 at 18:40:59 

     This program is part of the open-source Quantum ESPRESSO suite
     for quantum simulation of materials; please cite
         "P. Giannozzi et al., J. Phys.:Condens. Matter 21 395502 (2009);
         "P. Giannozzi et al., J. Phys.:Condens. Matter 29 465901 (2017);
          URL http://www.quantum-espresso.org", 
     in publications or presentations arising from this work. More details at
     http://www.quantum-espresso.org/quote

     Parallel version (MPI), running on     1 processors

     MPI processes distributed on     1 nodes
     Fft bands division:     nmany     =       1
     Reading input from KPbI3.pwi
Warning: card &CELL ignored
Warning: card / ignored

     Current dimensions of program PWSCF are:
     Max number of different atomic species (ntypx) = 10
     Max number of k-points (npk) =  40000
     Max angular momentum in pseudopotentials (lmaxx) =  3

     Program PWSCF v.6.6 starts on 23Jan2024 at 18:40:59 

     This program is part of the open-source Quantum ESPRESSO suite
     for quantum simulation of materials; please cite
         "P. Giannozzi et al., J. Phys.:Condens. Matter 21 395502 (2009);
         "P. Giannozzi et al., J. Phys.:Condens. Matter 29 465901 (2017);
          URL http://www.quantum-espresso.org", 
     in publications or presentations arising from this work. More details at
     http://www.quantum-espresso.org/quote

     Parallel version (MPI), running on     1 processors

     MPI processes distributed on     1 nodes
     Fft bands division:     nmany     =       1
     Reading input from KPbI3.pwi
Warning: card &CELL ignored
Warning: card / ignored

     Current dimensions of program PWSCF are:
     Max number of different atomic species (ntypx) = 10
     Max number of k-points (npk) =  40000
     Max angular momentum in pseudopotentials (lmaxx) =  3
     file K.pbesol-spn-kjpaw_psl.1.0.0.UPF: wavefunction(s)  3S renormalized
     file Pb.pbesol-dn-kjpaw_psl.0.2.2.UPF: wavefunction(s)  6S renormalized

     Subspace diagonalization in iterative solution of the eigenvalue problem:
     a serial algorithm will be used

     Message from routine setup:
     using ibrav=0 with symmetry is DISCOURAGED, use correct ibrav instead

     G-vector sticks info
     --------------------
     sticks:   dense  smooth     PW     G-vecs:    dense   smooth      PW
     Sum        3447    1719    501               364741   128895   19937



     bravais-lattice index     =            0
     lattice parameter (alat)  =       8.9814  a.u.
     unit-cell volume          =    5807.8980 (a.u.)^3
     number of atoms/cell      =           20
     number of atomic types    =            3
     number of electrons       =       176.00
     number of Kohn-Sham states=           88
     kinetic-energy cutoff     =      30.0000  Ry
     charge density cutoff     =     240.0000  Ry
     convergence threshold     =      1.0E+08
     mixing beta               =       0.5000
     number of iterations used =            8  plain     mixing
     Exchange-correlation= SLA PW PSX PSC
                           (   1   4  10   8   0   0   0)

     celldm(1)=   8.981352  celldm(2)=   0.000000  celldm(3)=   0.000000
     celldm(4)=   0.000000  celldm(5)=   0.000000  celldm(6)=   0.000000

     crystal axes: (cart. coord. in units of alat)
               a(1) = (   1.000000  -0.000000   0.000000 )  
               a(2) = (  -0.000000   2.231958   0.000000 )  
               a(3) = (   0.000000   0.000000   3.591764 )  

     reciprocal axes: (cart. coord. in units 2 pi/alat)
               b(1) = (  1.000000  0.000000 -0.000000 )  
               b(2) = (  0.000000  0.448037 -0.000000 )  
               b(3) = ( -0.000000 -0.000000  0.278415 )  


     PseudoPot. # 1 for K  read from file:
     /Users/muon/Documents/materials/alchemist/pp/efficiency/K.pbesol-spn-kjpaw_psl.1.0.0.UPF
     MD5 check sum: b302bede38c4f5fe00638ceae66f121b
     Pseudo is Projector augmented-wave + core cor, Zval =  9.0
     Generated using "atomic" code by A. Dal Corso v.6.0 svn rev. 13079
     Shape of augmentation charge: PSQ
     Using radial grid of 1165 points,  6 beta functions with: 
                l(1) =   0
                l(2) =   0
                l(3) =   1
                l(4) =   1
                l(5) =   2
                l(6) =   2
     Q(r) pseudized with 0 coefficients 


     PseudoPot. # 2 for Pb read from file:
     /Users/muon/Documents/materials/alchemist/pp/efficiency/Pb.pbesol-dn-kjpaw_psl.0.2.2.UPF
     MD5 check sum: df0e0ac60519e244e20a4bf230ae894d
     Pseudo is Projector augmented-wave + core cor, Zval = 14.0
     Generated using "atomic" code by A. Dal Corso v.6.0 svn rev. 13079
     Shape of augmentation charge: PSQ
     Using radial grid of 1281 points,  6 beta functions with: 
                l(1) =   0
                l(2) =   0
                l(3) =   1
                l(4) =   1
                l(5) =   2
                l(6) =   2
     Q(r) pseudized with 0 coefficients 


     PseudoPot. # 3 for I  read from file:
     /Users/muon/Documents/materials/alchemist/pp/efficiency/I.pbesol-n-kjpaw_psl.0.2.UPF
     MD5 check sum: cecf1a22a184a0b1ae701638a037a48d
     Pseudo is Projector augmented-wave + core cor, Zval =  7.0
     Generated using "atomic" code by A. Dal Corso v.6.0 svn rev. 13079
     Shape of augmentation charge: PSQ
     Using radial grid of 1247 points,  4 beta functions with: 
                l(1) =   0
                l(2) =   0
                l(3) =   1
                l(4) =   1
     Q(r) pseudized with 0 coefficients 


     atomic species   valence    mass     pseudopotential
        K              9.00    39.09830     K ( 1.00)
        Pb            14.00   207.20000     Pb( 1.00)
        I              7.00   126.90447     I ( 1.00)

      8 Sym. Ops., with inversion, found ( 6 have fractional translation)



   Cartesian axes

     site n.     atom                  positions (alat units)
         1           K   tau(   1) = (   0.2500000   2.0816266   0.6320964  )
         2           K   tau(   2) = (   0.7500000   0.1503315   2.9596679  )
         3           K   tau(   3) = (   0.7500000   1.2663106   2.4279785  )
         4           K   tau(   4) = (   0.2500000   0.9656475   1.1637858  )
         5           Pb  tau(   5) = (   0.2500000   1.4969517   3.3849704  )
         6           Pb  tau(   6) = (   0.7500000   0.7350064   0.2067939  )
         7           Pb  tau(   7) = (   0.7500000   1.8509855   1.5890882  )
         8           Pb  tau(   8) = (   0.2500000   0.3809726   2.0026761  )
         9           I   tau(   9) = (   0.2500000   1.1523770   0.4148043  )
        10           I   tau(  10) = (   0.7500000   1.0795811   3.1769600  )
        11           I   tau(  11) = (   0.7500000   2.1955601   2.2106865  )
        12           I   tau(  12) = (   0.2500000   0.0363980   1.3810778  )
        13           I   tau(  13) = (   0.2500000   1.4648974   1.8542489  )
        14           I   tau(  14) = (   0.7500000   0.7670607   1.7375154  )
        15           I   tau(  15) = (   0.7500000   1.8830397   0.0583668  )
        16           I   tau(  16) = (   0.2500000   0.3489184   3.5333975  )
        17           I   tau(  17) = (   0.2500000   1.7870746   2.8016820  )
        18           I   tau(  18) = (   0.7500000   0.4448835   0.7900823  )
        19           I   tau(  19) = (   0.7500000   1.5608626   1.0057999  )
        20           I   tau(  20) = (   0.2500000   0.6710955   2.5859644  )

     number of k points=   125

     Number of k-points >= 100: set verbosity='high' to print them.

     Dense  grid:   364741 G-vectors     FFT dimensions: (  48, 100, 160)

     Smooth grid:   128895 G-vectors     FFT dimensions: (  32,  72, 120)

     Estimated max dynamical RAM per process >       4.14 GB
     file K.pbesol-spn-kjpaw_psl.1.0.0.UPF: wavefunction(s)  3S renormalized
     file Pb.pbesol-dn-kjpaw_psl.0.2.2.UPF: wavefunction(s)  6S renormalized
     file K.pbesol-spn-kjpaw_psl.1.0.0.UPF: wavefunction(s)  3S renormalized
     file Pb.pbesol-dn-kjpaw_psl.0.2.2.UPF: wavefunction(s)  6S renormalized

     Subspace diagonalization in iterative solution of the eigenvalue problem:
     a serial algorithm will be used

     Message from routine setup:
     using ibrav=0 with symmetry is DISCOURAGED, use correct ibrav instead

     G-vector sticks info
     --------------------
     sticks:   dense  smooth     PW     G-vecs:    dense   smooth      PW
     Sum        3447    1719    501               364741   128895   19937



     bravais-lattice index     =            0
     lattice parameter (alat)  =       8.9814  a.u.
     unit-cell volume          =    5807.8980 (a.u.)^3
     number of atoms/cell      =           20
     number of atomic types    =            3
     number of electrons       =       176.00
     number of Kohn-Sham states=           88
     kinetic-energy cutoff     =      30.0000  Ry
     charge density cutoff     =     240.0000  Ry
     convergence threshold     =      1.0E+08
     mixing beta               =       0.5000
     number of iterations used =            8  plain     mixing
     Exchange-correlation= SLA PW PSX PSC
                           (   1   4  10   8   0   0   0)

     celldm(1)=   8.981352  celldm(2)=   0.000000  celldm(3)=   0.000000
     celldm(4)=   0.000000  celldm(5)=   0.000000  celldm(6)=   0.000000

     crystal axes: (cart. coord. in units of alat)
               a(1) = (   1.000000  -0.000000   0.000000 )  
               a(2) = (  -0.000000   2.231958   0.000000 )  
               a(3) = (   0.000000   0.000000   3.591764 )  

     reciprocal axes: (cart. coord. in units 2 pi/alat)
               b(1) = (  1.000000  0.000000 -0.000000 )  
               b(2) = (  0.000000  0.448037 -0.000000 )  
               b(3) = ( -0.000000 -0.000000  0.278415 )  


     PseudoPot. # 1 for K  read from file:
     /Users/muon/Documents/materials/alchemist/pp/efficiency/K.pbesol-spn-kjpaw_psl.1.0.0.UPF
     MD5 check sum: b302bede38c4f5fe00638ceae66f121b
     Pseudo is Projector augmented-wave + core cor, Zval =  9.0
     Generated using "atomic" code by A. Dal Corso v.6.0 svn rev. 13079
     Shape of augmentation charge: PSQ
     Using radial grid of 1165 points,  6 beta functions with: 
                l(1) =   0
                l(2) =   0
                l(3) =   1
                l(4) =   1
                l(5) =   2
                l(6) =   2
     Q(r) pseudized with 0 coefficients 


     PseudoPot. # 2 for Pb read from file:
     /Users/muon/Documents/materials/alchemist/pp/efficiency/Pb.pbesol-dn-kjpaw_psl.0.2.2.UPF
     MD5 check sum: df0e0ac60519e244e20a4bf230ae894d
     Pseudo is Projector augmented-wave + core cor, Zval = 14.0
     Generated using "atomic" code by A. Dal Corso v.6.0 svn rev. 13079
     Shape of augmentation charge: PSQ
     Using radial grid of 1281 points,  6 beta functions with: 
                l(1) =   0
                l(2) =   0
                l(3) =   1
                l(4) =   1
                l(5) =   2
                l(6) =   2
     Q(r) pseudized with 0 coefficients 


     PseudoPot. # 3 for I  read from file:
     /Users/muon/Documents/materials/alchemist/pp/efficiency/I.pbesol-n-kjpaw_psl.0.2.UPF
     MD5 check sum: cecf1a22a184a0b1ae701638a037a48d
     Pseudo is Projector augmented-wave + core cor, Zval =  7.0
     Generated using "atomic" code by A. Dal Corso v.6.0 svn rev. 13079
     Shape of augmentation charge: PSQ
     Using radial grid of 1247 points,  4 beta functions with: 
                l(1) =   0
                l(2) =   0
                l(3) =   1
                l(4) =   1
     Q(r) pseudized with 0 coefficients 


     atomic species   valence    mass     pseudopotential
        K              9.00    39.09830     K ( 1.00)
        Pb            14.00   207.20000     Pb( 1.00)
        I              7.00   126.90447     I ( 1.00)

      8 Sym. Ops., with inversion, found ( 6 have fractional translation)



   Cartesian axes

     site n.     atom                  positions (alat units)
         1           K   tau(   1) = (   0.2500000   2.0816266   0.6320964  )
         2           K   tau(   2) = (   0.7500000   0.1503315   2.9596679  )
         3           K   tau(   3) = (   0.7500000   1.2663106   2.4279785  )
         4           K   tau(   4) = (   0.2500000   0.9656475   1.1637858  )
         5           Pb  tau(   5) = (   0.2500000   1.4969517   3.3849704  )
         6           Pb  tau(   6) = (   0.7500000   0.7350064   0.2067939  )
         7           Pb  tau(   7) = (   0.7500000   1.8509855   1.5890882  )
         8           Pb  tau(   8) = (   0.2500000   0.3809726   2.0026761  )
         9           I   tau(   9) = (   0.2500000   1.1523770   0.4148043  )
        10           I   tau(  10) = (   0.7500000   1.0795811   3.1769600  )
        11           I   tau(  11) = (   0.7500000   2.1955601   2.2106865  )
        12           I   tau(  12) = (   0.2500000   0.0363980   1.3810778  )
        13           I   tau(  13) = (   0.2500000   1.4648974   1.8542489  )
        14           I   tau(  14) = (   0.7500000   0.7670607   1.7375154  )
        15           I   tau(  15) = (   0.7500000   1.8830397   0.0583668  )
        16           I   tau(  16) = (   0.2500000   0.3489184   3.5333975  )
        17           I   tau(  17) = (   0.2500000   1.7870746   2.8016820  )
        18           I   tau(  18) = (   0.7500000   0.4448835   0.7900823  )
        19           I   tau(  19) = (   0.7500000   1.5608626   1.0057999  )
        20           I   tau(  20) = (   0.2500000   0.6710955   2.5859644  )

     number of k points=   125

     Number of k-points >= 100: set verbosity='high' to print them.

     Dense  grid:   364741 G-vectors     FFT dimensions: (  48, 100, 160)

     Smooth grid:   128895 G-vectors     FFT dimensions: (  32,  72, 120)

     Estimated max dynamical RAM per process >       4.14 GB

     Subspace diagonalization in iterative solution of the eigenvalue problem:
     a serial algorithm will be used

     Message from routine setup:
     using ibrav=0 with symmetry is DISCOURAGED, use correct ibrav instead

     G-vector sticks info
     --------------------
     sticks:   dense  smooth     PW     G-vecs:    dense   smooth      PW
     Sum        3447    1719    501               364741   128895   19937



     bravais-lattice index     =            0
     lattice parameter (alat)  =       8.9814  a.u.
     unit-cell volume          =    5807.8980 (a.u.)^3
     number of atoms/cell      =           20
     number of atomic types    =            3
     number of electrons       =       176.00
     number of Kohn-Sham states=           88
     kinetic-energy cutoff     =      30.0000  Ry
     charge density cutoff     =     240.0000  Ry
     convergence threshold     =      1.0E+08
     mixing beta               =       0.5000
     number of iterations used =            8  plain     mixing
     Exchange-correlation= SLA PW PSX PSC
                           (   1   4  10   8   0   0   0)

     celldm(1)=   8.981352  celldm(2)=   0.000000  celldm(3)=   0.000000
     celldm(4)=   0.000000  celldm(5)=   0.000000  celldm(6)=   0.000000

     crystal axes: (cart. coord. in units of alat)
               a(1) = (   1.000000  -0.000000   0.000000 )  
               a(2) = (  -0.000000   2.231958   0.000000 )  
               a(3) = (   0.000000   0.000000   3.591764 )  

     reciprocal axes: (cart. coord. in units 2 pi/alat)
               b(1) = (  1.000000  0.000000 -0.000000 )  
               b(2) = (  0.000000  0.448037 -0.000000 )  
               b(3) = ( -0.000000 -0.000000  0.278415 )  


     PseudoPot. # 1 for K  read from file:
     /Users/muon/Documents/materials/alchemist/pp/efficiency/K.pbesol-spn-kjpaw_psl.1.0.0.UPF
     MD5 check sum: b302bede38c4f5fe00638ceae66f121b
     Pseudo is Projector augmented-wave + core cor, Zval =  9.0
     Generated using "atomic" code by A. Dal Corso v.6.0 svn rev. 13079
     Shape of augmentation charge: PSQ
     Using radial grid of 1165 points,  6 beta functions with: 
                l(1) =   0
                l(2) =   0
                l(3) =   1
                l(4) =   1
                l(5) =   2
                l(6) =   2
     Q(r) pseudized with 0 coefficients 


     PseudoPot. # 2 for Pb read from file:
     /Users/muon/Documents/materials/alchemist/pp/efficiency/Pb.pbesol-dn-kjpaw_psl.0.2.2.UPF
     MD5 check sum: df0e0ac60519e244e20a4bf230ae894d
     Pseudo is Projector augmented-wave + core cor, Zval = 14.0
     Generated using "atomic" code by A. Dal Corso v.6.0 svn rev. 13079
     Shape of augmentation charge: PSQ
     Using radial grid of 1281 points,  6 beta functions with: 
                l(1) =   0
                l(2) =   0
                l(3) =   1
                l(4) =   1
                l(5) =   2
                l(6) =   2
     Q(r) pseudized with 0 coefficients 


     PseudoPot. # 3 for I  read from file:
     /Users/muon/Documents/materials/alchemist/pp/efficiency/I.pbesol-n-kjpaw_psl.0.2.UPF
     MD5 check sum: cecf1a22a184a0b1ae701638a037a48d
     Pseudo is Projector augmented-wave + core cor, Zval =  7.0
     Generated using "atomic" code by A. Dal Corso v.6.0 svn rev. 13079
     Shape of augmentation charge: PSQ
     Using radial grid of 1247 points,  4 beta functions with: 
                l(1) =   0
                l(2) =   0
                l(3) =   1
                l(4) =   1
     Q(r) pseudized with 0 coefficients 


     atomic species   valence    mass     pseudopotential
        K              9.00    39.09830     K ( 1.00)
        Pb            14.00   207.20000     Pb( 1.00)
        I              7.00   126.90447     I ( 1.00)

      8 Sym. Ops., with inversion, found ( 6 have fractional translation)



   Cartesian axes

     site n.     atom                  positions (alat units)
         1           K   tau(   1) = (   0.2500000   2.0816266   0.6320964  )
         2           K   tau(   2) = (   0.7500000   0.1503315   2.9596679  )
         3           K   tau(   3) = (   0.7500000   1.2663106   2.4279785  )
         4           K   tau(   4) = (   0.2500000   0.9656475   1.1637858  )
         5           Pb  tau(   5) = (   0.2500000   1.4969517   3.3849704  )
         6           Pb  tau(   6) = (   0.7500000   0.7350064   0.2067939  )
         7           Pb  tau(   7) = (   0.7500000   1.8509855   1.5890882  )
         8           Pb  tau(   8) = (   0.2500000   0.3809726   2.0026761  )
         9           I   tau(   9) = (   0.2500000   1.1523770   0.4148043  )
        10           I   tau(  10) = (   0.7500000   1.0795811   3.1769600  )
        11           I   tau(  11) = (   0.7500000   2.1955601   2.2106865  )
        12           I   tau(  12) = (   0.2500000   0.0363980   1.3810778  )
        13           I   tau(  13) = (   0.2500000   1.4648974   1.8542489  )
        14           I   tau(  14) = (   0.7500000   0.7670607   1.7375154  )
        15           I   tau(  15) = (   0.7500000   1.8830397   0.0583668  )
        16           I   tau(  16) = (   0.2500000   0.3489184   3.5333975  )
        17           I   tau(  17) = (   0.2500000   1.7870746   2.8016820  )
        18           I   tau(  18) = (   0.7500000   0.4448835   0.7900823  )
        19           I   tau(  19) = (   0.7500000   1.5608626   1.0057999  )
        20           I   tau(  20) = (   0.2500000   0.6710955   2.5859644  )

     number of k points=   125

     Number of k-points >= 100: set verbosity='high' to print them.

     Dense  grid:   364741 G-vectors     FFT dimensions: (  48, 100, 160)

     Smooth grid:   128895 G-vectors     FFT dimensions: (  32,  72, 120)

     Estimated max dynamical RAM per process >       4.14 GB
     file K.pbesol-spn-kjpaw_psl.1.0.0.UPF: wavefunction(s)  3S renormalized
     file Pb.pbesol-dn-kjpaw_psl.0.2.2.UPF: wavefunction(s)  6S renormalized

     Subspace diagonalization in iterative solution of the eigenvalue problem:
     a serial algorithm will be used

     Message from routine setup:
     using ibrav=0 with symmetry is DISCOURAGED, use correct ibrav instead

     G-vector sticks info
     --------------------
     sticks:   dense  smooth     PW     G-vecs:    dense   smooth      PW
     Sum        3447    1719    501               364741   128895   19937



     bravais-lattice index     =            0
     lattice parameter (alat)  =       8.9814  a.u.
     unit-cell volume          =    5807.8980 (a.u.)^3
     number of atoms/cell      =           20
     number of atomic types    =            3
     number of electrons       =       176.00
     number of Kohn-Sham states=           88
     kinetic-energy cutoff     =      30.0000  Ry
     charge density cutoff     =     240.0000  Ry
     convergence threshold     =      1.0E+08
     mixing beta               =       0.5000
     number of iterations used =            8  plain     mixing
     Exchange-correlation= SLA PW PSX PSC
                           (   1   4  10   8   0   0   0)

     celldm(1)=   8.981352  celldm(2)=   0.000000  celldm(3)=   0.000000
     celldm(4)=   0.000000  celldm(5)=   0.000000  celldm(6)=   0.000000

     crystal axes: (cart. coord. in units of alat)
               a(1) = (   1.000000  -0.000000   0.000000 )  
               a(2) = (  -0.000000   2.231958   0.000000 )  
               a(3) = (   0.000000   0.000000   3.591764 )  

     reciprocal axes: (cart. coord. in units 2 pi/alat)
               b(1) = (  1.000000  0.000000 -0.000000 )  
               b(2) = (  0.000000  0.448037 -0.000000 )  
               b(3) = ( -0.000000 -0.000000  0.278415 )  


     PseudoPot. # 1 for K  read from file:
     /Users/muon/Documents/materials/alchemist/pp/efficiency/K.pbesol-spn-kjpaw_psl.1.0.0.UPF
     MD5 check sum: b302bede38c4f5fe00638ceae66f121b
     Pseudo is Projector augmented-wave + core cor, Zval =  9.0
     Generated using "atomic" code by A. Dal Corso v.6.0 svn rev. 13079
     Shape of augmentation charge: PSQ
     Using radial grid of 1165 points,  6 beta functions with: 
                l(1) =   0
                l(2) =   0
                l(3) =   1
                l(4) =   1
                l(5) =   2
                l(6) =   2
     Q(r) pseudized with 0 coefficients 


     PseudoPot. # 2 for Pb read from file:
     /Users/muon/Documents/materials/alchemist/pp/efficiency/Pb.pbesol-dn-kjpaw_psl.0.2.2.UPF
     MD5 check sum: df0e0ac60519e244e20a4bf230ae894d
     Pseudo is Projector augmented-wave + core cor, Zval = 14.0
     Generated using "atomic" code by A. Dal Corso v.6.0 svn rev. 13079
     Shape of augmentation charge: PSQ
     Using radial grid of 1281 points,  6 beta functions with: 
                l(1) =   0
                l(2) =   0
                l(3) =   1
                l(4) =   1
                l(5) =   2
                l(6) =   2
     Q(r) pseudized with 0 coefficients 


     PseudoPot. # 3 for I  read from file:
     /Users/muon/Documents/materials/alchemist/pp/efficiency/I.pbesol-n-kjpaw_psl.0.2.UPF
     MD5 check sum: cecf1a22a184a0b1ae701638a037a48d
     Pseudo is Projector augmented-wave + core cor, Zval =  7.0
     Generated using "atomic" code by A. Dal Corso v.6.0 svn rev. 13079
     Shape of augmentation charge: PSQ
     Using radial grid of 1247 points,  4 beta functions with: 
                l(1) =   0
                l(2) =   0
                l(3) =   1
                l(4) =   1
     Q(r) pseudized with 0 coefficients 


     atomic species   valence    mass     pseudopotential
        K              9.00    39.09830     K ( 1.00)
        Pb            14.00   207.20000     Pb( 1.00)
        I              7.00   126.90447     I ( 1.00)

      8 Sym. Ops., with inversion, found ( 6 have fractional translation)



   Cartesian axes

     site n.     atom                  positions (alat units)
         1           K   tau(   1) = (   0.2500000   2.0816266   0.6320964  )
         2           K   tau(   2) = (   0.7500000   0.1503315   2.9596679  )
         3           K   tau(   3) = (   0.7500000   1.2663106   2.4279785  )
         4           K   tau(   4) = (   0.2500000   0.9656475   1.1637858  )
         5           Pb  tau(   5) = (   0.2500000   1.4969517   3.3849704  )
         6           Pb  tau(   6) = (   0.7500000   0.7350064   0.2067939  )
         7           Pb  tau(   7) = (   0.7500000   1.8509855   1.5890882  )
         8           Pb  tau(   8) = (   0.2500000   0.3809726   2.0026761  )
         9           I   tau(   9) = (   0.2500000   1.1523770   0.4148043  )
        10           I   tau(  10) = (   0.7500000   1.0795811   3.1769600  )
        11           I   tau(  11) = (   0.7500000   2.1955601   2.2106865  )
        12           I   tau(  12) = (   0.2500000   0.0363980   1.3810778  )
        13           I   tau(  13) = (   0.2500000   1.4648974   1.8542489  )
        14           I   tau(  14) = (   0.7500000   0.7670607   1.7375154  )
        15           I   tau(  15) = (   0.7500000   1.8830397   0.0583668  )
        16           I   tau(  16) = (   0.2500000   0.3489184   3.5333975  )
        17           I   tau(  17) = (   0.2500000   1.7870746   2.8016820  )
        18           I   tau(  18) = (   0.7500000   0.4448835   0.7900823  )
        19           I   tau(  19) = (   0.7500000   1.5608626   1.0057999  )
        20           I   tau(  20) = (   0.2500000   0.6710955   2.5859644  )

     number of k points=   125

     Number of k-points >= 100: set verbosity='high' to print them.

     Dense  grid:   364741 G-vectors     FFT dimensions: (  48, 100, 160)

     Smooth grid:   128895 G-vectors     FFT dimensions: (  32,  72, 120)

     Estimated max dynamical RAM per process >       4.14 GB
     file K.pbesol-spn-kjpaw_psl.1.0.0.UPF: wavefunction(s)  3S renormalized
     file Pb.pbesol-dn-kjpaw_psl.0.2.2.UPF: wavefunction(s)  6S renormalized

     Subspace diagonalization in iterative solution of the eigenvalue problem:
     a serial algorithm will be used

     Message from routine setup:
     using ibrav=0 with symmetry is DISCOURAGED, use correct ibrav instead
     file K.pbesol-spn-kjpaw_psl.1.0.0.UPF: wavefunction(s)  3S renormalized
     file Pb.pbesol-dn-kjpaw_psl.0.2.2.UPF: wavefunction(s)  6S renormalized

     Subspace diagonalization in iterative solution of the eigenvalue problem:
     a serial algorithm will be used

     Message from routine setup:
     using ibrav=0 with symmetry is DISCOURAGED, use correct ibrav instead

     G-vector sticks info
     --------------------
     sticks:   dense  smooth     PW     G-vecs:    dense   smooth      PW
     Sum        3447    1719    501               364741   128895   19937



     bravais-lattice index     =            0
     lattice parameter (alat)  =       8.9814  a.u.
     unit-cell volume          =    5807.8980 (a.u.)^3
     number of atoms/cell      =           20
     number of atomic types    =            3
     number of electrons       =       176.00
     number of Kohn-Sham states=           88
     kinetic-energy cutoff     =      30.0000  Ry
     charge density cutoff     =     240.0000  Ry
     convergence threshold     =      1.0E+08
     mixing beta               =       0.5000
     number of iterations used =            8  plain     mixing
     Exchange-correlation= SLA PW PSX PSC
                           (   1   4  10   8   0   0   0)

     celldm(1)=   8.981352  celldm(2)=   0.000000  celldm(3)=   0.000000
     celldm(4)=   0.000000  celldm(5)=   0.000000  celldm(6)=   0.000000

     crystal axes: (cart. coord. in units of alat)
               a(1) = (   1.000000  -0.000000   0.000000 )  
               a(2) = (  -0.000000   2.231958   0.000000 )  
               a(3) = (   0.000000   0.000000   3.591764 )  

     reciprocal axes: (cart. coord. in units 2 pi/alat)
               b(1) = (  1.000000  0.000000 -0.000000 )  
               b(2) = (  0.000000  0.448037 -0.000000 )  
               b(3) = ( -0.000000 -0.000000  0.278415 )  


     PseudoPot. # 1 for K  read from file:
     /Users/muon/Documents/materials/alchemist/pp/efficiency/K.pbesol-spn-kjpaw_psl.1.0.0.UPF
     MD5 check sum: b302bede38c4f5fe00638ceae66f121b
     Pseudo is Projector augmented-wave + core cor, Zval =  9.0
     Generated using "atomic" code by A. Dal Corso v.6.
     G-vector sticks info
     --------------------
     sticks:   dense  smooth     PW     G-vecs:    dense   smooth      PW
     Sum        3447    1719    501               364741   128895   19937



     bravais-lattice index     =            0
     lattice parameter (alat)  =       8.9814  a.u.
     unit-cell volume          =    5807.8980 (a.u.)^3
     number of atoms/cell      =           20
     number of atomic types    =            3
     number of electrons       =       176.00
     number of Kohn-Sham states=           88
     kinetic-energy cutoff     =      30.0000  Ry
     charge density cutoff     =     240.0000  Ry
     convergence threshold     =      1.0E+08
     mixing beta               =       0.5000
     number of iterations used =            8  plain     mixing
     Exchange-correlation= SLA PW PSX PSC
                           (   1   4  10   8   0   0   0)

     celldm(1)=   8.981352  celldm(2)=   0.000000  celldm(3)=   0.000000
     celldm(4)=   0.000000  celldm(5)=   0.000000  celldm(6)=   0.000000

     crystal axes: (cart. coord. in units of alat)
               a(1) = (   1.000000  -0.000000   0.000000 )  
               a(2) = (  -0.000000   2.231958   0.000000 )  
               a(3) = (   0.000000   0.000000   3.591764 )  

     reciprocal axes: (cart. coord. in units 2 pi/alat)
               b(1) = (  1.000000  0.000000 -0.000000 )  
               b(2) = (  0.000000  0.448037 -0.000000 )  
               b(3) = ( -0.000000 -0.000000  0.278415 )  


     PseudoPot. # 1 for K  read from file:
     /Users/muon/Documents/materials/alchemist/pp/efficiency/K.pbesol-spn-kjpaw_psl.1.0.0.UPF
     MD5 check sum: b302bede38c4f5fe00638ceae66f121b
     Pseudo is Projector augmented-wave + core cor, Zval =  9.0
     Generated using "atomic" code by A. Dal Corso v.6.0 svn rev. 13079
     Shape of augmentation charge: PSQ
     Using radial grid of 1165 points,  6 beta functions with: 
                l(1) =   0
                l(2) =   0
                l(3) =   1
                l(4) =   1
                l(5) =   2
                l(6) =   2
     Q(r) pseudized with 0 coefficients 


     PseudoPot. # 2 for Pb read from file:
     /Users/muon/Documents/materials/alchemist/pp/efficiency/Pb.pbesol-dn-kjpaw_psl.0.2.2.UPF
     MD5 check sum: df0e0ac60519e244e20a4bf230ae894d
     Pseudo is Projector augmented-wave + core cor, Zval = 14.0
     Generated using "atomic" code by A. Dal Corso v.6.0 svn rev. 13079
     Shape of augmentation charge: PSQ
     Using radial grid of 1281 points,  6 beta functions with: 
                l(1) =   0
                l(2) =   0
                l(3) =   1
                l(4) =   1
                l(5) =   2
                l(6) =   2
     Q(r) pseudized with 0 coefficients 


     PseudoPot. # 3 for I  read from file:
     /Users/muon/Documents/materials/alchemist/pp/efficiency/I.pbesol-n-kjpaw_psl.0.2.UPF
     MD5 check sum: cecf1a22a184a0b1ae701638a037a48d
     Pseudo is Projector augmented-wave + core cor, Zval =  7.0
     Generated using "atomic" code by A. Dal Corso v.6.0 svn rev. 13079
     Shape of augmentation charge: PSQ
     Using radial grid of 1247 points,  4 beta functions with: 
                l(1) =   0
                l(2) =   0
                l(3) =   1
                l(4) =   1
     Q(r) pseudized with 0 coefficients 


     atomic species   valence    mass     pseudopotential
        K              9.00    39.09830     K ( 1.00)
        Pb            14.00   207.20000     Pb( 1.00)
        I              7.00   126.90447     I ( 1.00)

      8 Sym. Ops., with inversion, found ( 6 have fractional translation)



   Cartesian axes

     site n.     atom                  positions (alat units)
         1           K   tau(   1) = (   0.2500000   2.0816266   0.6320964  )
         2           K   tau(   2) = (   0.7500000   0.1503315   2.9596679  )
         3           K   tau(   3) = (   0.7500000   1.2663106   2.4279785  )
         4           K   tau(   4) = (   0.2500000   0.9656475   1.1637858  )
         5           Pb  tau(   5) = (   0.2500000   1.4969517   3.3849704  )
         6           Pb  tau(   6) = (   0.7500000   0.7350064   0.2067939  )
         7           Pb  tau(   7) = (   0.7500000   1.8509855   1.5890882  )
         8           Pb  tau(   8) = (   0.2500000   0.3809726   2.0026761  )
         9           I   tau(   9) = (   0.2500000   1.1523770   0.4148043  )
        10           I   tau(  10) = (   0.7500000   1.0795811   3.1769600  )
        11           I   tau(  11) = (   0.7500000   2.1955601   2.2106865  )
        12           I   tau(  12) = (   0.2500000   0.0363980   1.3810778  )
        13           I   tau(  13) = (   0.2500000   1.4648974   1.8542489  )
        14           I   tau(  14) = (   0.7500000   0.7670607   1.7375154  )
        15           I   tau(  15) = (   0.7500000   1.8830397   0.0583668  )
        16           I   tau(  16) = (   0.2500000   0.3489184   3.5333975  )
        17           I   tau(  17) = (   0.2500000   1.7870746   2.8016820  )
        18           I   tau(  18) = (   0.7500000   0.4448835   0.7900823  )
        19           I   tau(  19) = (   0.7500000   1.5608626   1.0057999  )
        20           I   tau(  20) = (   0.2500000   0.6710955   2.5859644  )

     number of k points=   125

     Number of k-points >= 100: set verbosity='high' to print them.

     Dense  grid:   364741 G-vectors     FFT dimensions: (  48, 100, 160)

     Smooth grid:   128895 G-vectors     FFT dimensions: (  32,  72, 120)

     Estimated max dynamical RAM per process >       4.14 GB
0 svn rev. 13079
     Shape of augmentation charge: PSQ
     Using radial grid of 1165 points,  6 beta functions with: 
                l(1) =   0
                l(2) =   0
                l(3) =   1
                l(4) =   1
                l(5) =   2
                l(6) =   2
     Q(r) pseudized with 0 coefficients 


     PseudoPot. # 2 for Pb read from file:
     /Users/muon/Documents/materials/alchemist/pp/efficiency/Pb.pbesol-dn-kjpaw_psl.0.2.2.UPF
     MD5 check sum: df0e0ac60519e244e20a4bf230ae894d
     Pseudo is Projector augmented-wave + core cor, Zval = 14.0
     Generated using "atomic" code by A. Dal Corso v.6.0 svn rev. 13079
     Shape of augmentation charge: PSQ
     Using radial grid of 1281 points,  6 beta functions with: 
                l(1) =   0
                l(2) =   0
                l(3) =   1
                l(4) =   1
                l(5) =   2
                l(6) =   2
     Q(r) pseudized with 0 coefficients 


     PseudoPot. # 3 for I  read from file:
     /Users/muon/Documents/materials/alchemist/pp/efficiency/I.pbesol-n-kjpaw_psl.0.2.UPF
     MD5 check sum: cecf1a22a184a0b1ae701638a037a48d
     Pseudo is Projector augmented-wave + core cor, Zval =  7.0
     Generated using "atomic" code by A. Dal Corso v.6.0 svn rev. 13079
     Shape of augmentation charge: PSQ
     Using radial grid of 1247 points,  4 beta functions with: 
                l(1) =   0
                l(2) =   0
                l(3) =   1
                l(4) =   1
     Q(r) pseudized with 0 coefficients 


     atomic species   valence    mass     pseudopotential
        K              9.00    39.09830     K ( 1.00)
        Pb            14.00   207.20000     Pb( 1.00)
        I              7.00   126.90447     I ( 1.00)

      8 Sym. Ops., with inversion, found ( 6 have fractional translation)



   Cartesian axes

     site n.     atom                  positions (alat units)
         1           K   tau(   1) = (   0.2500000   2.0816266   0.6320964  )
         2           K   tau(   2) = (   0.7500000   0.1503315   2.9596679  )
         3           K   tau(   3) = (   0.7500000   1.2663106   2.4279785  )
         4           K   tau(   4) = (   0.2500000   0.9656475   1.1637858  )
         5           Pb  tau(   5) = (   0.2500000   1.4969517   3.3849704  )
         6           Pb  tau(   6) = (   0.7500000   0.7350064   0.2067939  )
         7           Pb  tau(   7) = (   0.7500000   1.8509855   1.5890882  )
         8           Pb  tau(   8) = (   0.2500000   0.3809726   2.0026761  )
         9           I   tau(   9) = (   0.2500000   1.1523770   0.4148043  )
        10           I   tau(  10) = (   0.7500000   1.0795811   3.1769600  )
        11           I   tau(  11) = (   0.7500000   2.1955601   2.2106865  )
        12           I   tau(  12) = (   0.2500000   0.0363980   1.3810778  )
        13           I   tau(  13) = (   0.2500000   1.4648974   1.8542489  )
        14           I   tau(  14) = (   0.7500000   0.7670607   1.7375154  )
        15           I   tau(  15) = (   0.7500000   1.8830397   0.0583668  )
        16           I   tau(  16) = (   0.2500000   0.3489184   3.5333975  )
        17           I   tau(  17) = (   0.2500000   1.7870746   2.8016820  )
        18           I   tau(  18) = (   0.7500000   0.4448835   0.7900823  )
        19           I   tau(  19) = (   0.7500000   1.5608626   1.0057999  )
        20           I   tau(  20) = (   0.2500000   0.6710955   2.5859644  )

     number of k points=   125

     Number of k-points >= 100: set verbosity='high' to print them.

     Dense  grid:   364741 G-vectors     FFT dimensions: (  48, 100, 160)

     Smooth grid:   128895 G-vectors     FFT dimensions: (  32,  72, 120)

     Estimated max dynamical RAM per process >       4.14 GB
     file K.pbesol-spn-kjpaw_psl.1.0.0.UPF: wavefunction(s)  3S renormalized
     file Pb.pbesol-dn-kjpaw_psl.0.2.2.UPF: wavefunction(s)  6S renormalized

     Subspace diagonalization in iterative solution of the eigenvalue problem:
     a serial algorithm will be used

     Message from routine setup:
     using ibrav=0 with symmetry is DISCOURAGED, use correct ibrav instead
     file K.pbesol-spn-kjpaw_psl.1.0.0.UPF: wavefunction(s)  3S renormalized
     file Pb.pbesol-dn-kjpaw_psl.0.2.2.UPF: wavefunction(s)  6S renormalized

     Subspace diagonalization in iterative solution of the eigenvalue problem:
     a serial algorithm will be used

     Message from routine setup:
     using ibrav=0 with symmetry is DISCOURAGED, use correct ibrav instead

     G-vector sticks info
     --------------------
     sticks:   dense  smooth     PW     G-vecs:    dense   smooth      PW
     Sum        3447    1719    501               364741   128895   19937



     bravais-lattice index     =            0
     lattice parameter (alat)  =       8.9814  a.u.
     unit-cell volume          =    5807.8980 (a.u.)^3
     number of atoms/cell      =           20
     number of atomic types    =            3
     number of electrons       =       176.00
     number of Kohn-Sham states=           88
     kinetic-energy cutoff     =      30.0000  Ry
     charge density cutoff     =     240.0000  Ry
     convergence threshold     =      1.0E+08
     mixing beta               =       0.5000
     number of iterations used =            8  plain     mixing
     Exchange-correlation= SLA PW PSX PSC
                           (   1   4  10   8   0   0   0)

     celldm(1)=   8.981352  celldm(2)=   0.000000  celldm(3)=   0.000000
     celldm(4)=   0.000000  celldm(5)=   0.000000  celldm(6)=   0.000000

     crystal axes: (cart. coord. in units of alat)
               a(1) = (   1.000000  -0.000000   0.000000 )  
               a(2) = (  -0.000000   2.231958   0.000000 )  
               a(3) = (   0.000000   0.000000   3.591764 )  

     reciprocal axes: (cart. coord. in units 2 pi/alat)
               b(1) = (  1.000000  0.000000 -0.000000 )  
               b(2) = (  0.000000  0.448037 -0.000000 )  
               b(3) = ( -0.000000 -0.000000  0.278415 )  


     PseudoPot. # 1 for K  read from file:
     /Users/muon/Documents/materials/alchemist/pp/efficiency/K.pbesol-spn-kjpaw_psl.1.0.0.UPF
     MD5 check sum: b302bede38c4f5fe00638ceae66f121b
     Pseudo is Projector augmented-wave + core cor, Zval =  9.0
     Generated using "atomic" code by A. Dal Corso v.6.0 svn rev. 13079
     Shape of augmentation charge: PSQ
     Using radial grid of 1165 points,  6 beta functions with: 
                l(1) =   0
                l(2) =   0
                l(3) =   1
                l(4) =   1
                l(5) =   2
                l(6) =   2
     Q(r) pseudized with 0 coefficients 


     PseudoPot. # 2 for Pb read from file:
     /Users/muon/Documents/materials/alchemist/pp/efficiency/Pb.pbesol-dn-kjpaw_psl.0.2.2.UPF
     MD5 check sum: df0e0ac60519e244e20a4bf230ae894d
     Pseudo is Projector augmented-wave + core cor, Zval = 14.0
     Generated using "atomic" code by A. Dal Corso v.6.0 svn rev. 13079
     Shape of augmentation charge: PSQ
     Using radial grid of 1281 points,  6 beta functions with: 
                l(1) =   0
                l(2) =   0
                l(3) =   1
                l(4) =   1
                l(5) =   2
                l(6) =   2
     Q(r) pseudized with 0 coefficients 


     PseudoPot. # 3 for I  read from file:
     /Users/muon/Documents/materials/alchemist/pp/efficiency/I.pbesol-n-kjpaw_psl.0.2.UPF
     MD5 check sum: cecf1a22a184a0b1ae701638a037a48d
     Pseudo is Projector augmented-wave + core cor, Zval =  7.0
     Generated using "atomic" code by A. Dal Corso v.6.0 svn rev. 13079
     Shape of augmentation charge: PSQ
     Using radial grid of 1247 points,  4 beta functions with: 
                l(1) =   0
                l(2) =   0
                l(3) =   1
                l(4) =   1
     Q(r) pseudized with 0 coefficients 


     atomic species   valence    mass     pseudopotential
        K              9.00    39.09830     K ( 1.00)
        Pb            14.00   207.20000     Pb( 1.00)
        I              7.00   126.90447     I ( 1.00)

      8 Sym. Ops., with inversion, found ( 6 have fractional translation)



   Cartesian axes

     site n.     atom                  positions (alat units)
         1           K   tau(   1) = (   0.2500000   2.0816266   0.6320964  )
         2           K   tau(   2) = (   0.7500000   0.1503315   2.9596679  )
         3           K   tau(   3) = (   0.7500000   1.2663106   2.4279785  )
         4           K   tau(   4) = (   0.2500000   0.9656475   1.1637858  )
         5           Pb  tau(   5) = (   0.2500000   1.4969517   3.3849704  )
         6           Pb  tau(   6) = (   0.7500000   0.7350064   0.2067939  )
         7           Pb  tau(   7) = (   0.7500000   1.8509855   1.5890882  )
         8           Pb  tau(   8) = (   0.2500000   0.3809726   2.0026761  )
         9           I   tau(   9) = (   0.2500000   1.1523770   0.4148043  )
        10           I   tau(  10) = (   0.7500000   1.0795811   3.1769600  )
        11           I   tau(  11) = (   0.7500000   2.1955601   2.2106865  )
        12           I   tau(  12) = (   0.2500000   0.0363980   1.3810778  )
        13           I   tau(  13) = (   0.2500000   1.4648974   1.8542489  )
        14           I   tau(  14) = (   0.7500000   0.7670607   1.7375154  )
        15           I   tau(  15) = (   0.7500000   1.8830397   0.0583668  )
        16           I   tau(  16) = (   0.2500000   0.3489184   3.5333975  )
        17           I   tau(  17) = (   0.2500000   1.7870746   2.8016820  )
        18           I   tau(  18) = (   0.7500000   0.4448835   0.7900823  )
        19           I   tau(  19) = (   0.7500000   1.5608626   1.0057999  )
        20           I   tau(  20) = (   0.2500000   0.6710955   2.5859644  )

     number of k points=   125

     Number of k-points >= 100: set verbosity='high' to print them.

     Dense  grid:   364741 G-vectors     FFT dimensions: (  48, 100, 160)

     Smooth grid:   128895 G-vectors     FFT dimensions: (  32,  72, 120)

     Estimated max dynamical RAM per process >       4.14 GB

     G-vector sticks info
     --------------------
     sticks:   dense  smooth     PW     G-vecs:    dense   smooth      PW
     Sum        3447    1719    501               364741   128895   19937



     bravais-lattice index     =            0
     lattice parameter (alat)  =       8.9814  a.u.
     unit-cell volume          =    5807.8980 (a.u.)^3
     number of atoms/cell      =           20
     number of atomic types    =            3
     number of electrons       =       176.00
     number of Kohn-Sham states=           88
     kinetic-energy cutoff     =      30.0000  Ry
     charge density cutoff     =     240.0000  Ry
     convergence threshold     =      1.0E+08
     mixing beta               =       0.5000
     number of iterations used =            8  plain     mixing
     Exchange-correlation= SLA PW PSX PSC
                           (   1   4  10   8   0   0   0)

     celldm(1)=   8.981352  celldm(2)=   0.000000  celldm(3)=   0.000000
     celldm(4)=   0.000000  celldm(5)=   0.000000  celldm(6)=   0.000000

     crystal axes: (cart. coord. in units of alat)
               a(1) = (   1.000000  -0.000000   0.000000 )  
               a(2) = (  -0.000000   2.231958   0.000000 )  
               a(3) = (   0.000000   0.000000   3.591764 )  

     reciprocal axes: (cart. coord. in units 2 pi/alat)
               b(1) = (  1.000000  0.000000 -0.000000 )  
               b(2) = (  0.000000  0.448037 -0.000000 )  
               b(3) = ( -0.000000 -0.000000  0.278415 )  


     PseudoPot. # 1 for K  read from file:
     /Users/muon/Documents/materials/alchemist/pp/efficiency/K.pbesol-spn-kjpaw_psl.1.0.0.UPF
     MD5 check sum: b302bede38c4f5fe00638ceae66f121b
     Pseudo is Projector augmented-wave + core cor, Zval =  9.0
     Generated using "atomic" code by A. Dal Corso v.6.0 svn rev. 13079
     Shape of augmentation charge: PSQ
     Using radial grid of 1165 points,  6 beta functions with: 
                l(1) =   0
                l(2) =   0
                l(3) =   1
                l(4) =   1
                l(5) =   2
                l(6) =   2
     Q(r) pseudized with 0 coefficients 


     PseudoPot. # 2 for Pb read from file:
     /Users/muon/Documents/materials/alchemist/pp/efficiency/Pb.pbesol-dn-kjpaw_psl.0.2.2.UPF
     MD5 check sum: df0e0ac60519e244e20a4bf230ae894d
     Pseudo is Projector augmented-wave + core cor, Zval = 14.0
     Generated using "atomic" code by A. Dal Corso v.6.0 svn rev. 13079
     Shape of augmentation charge: PSQ
     Using radial grid of 1281 points,  6 beta functions with: 
                l(1) =   0
                l(2) =   0
                l(3) =   1
                l(4) =   1
                l(5) =   2
                l(6) =   2
     Q(r) pseudized with 0 coefficients 


     PseudoPot. # 3 for I  read from file:
     /Users/muon/Documents/materials/alchemist/pp/efficiency/I.pbesol-n-kjpaw_psl.0.2.UPF
     MD5 check sum: cecf1a22a184a0b1ae701638a037a48d
     Pseudo is Projector augmented-wave + core cor, Zval =  7.0
     Generated using "atomic" code by A. Dal Corso v.6.0 svn rev. 13079
     Shape of augmentation charge: PSQ
     Using radial grid of 1247 points,  4 beta functions with: 
                l(1) =   0
                l(2) =   0
                l(3) =   1
                l(4) =   1
     Q(r) pseudized with 0 coefficients 


     atomic species   valence    mass     pseudopotential
        K              9.00    39.09830     K ( 1.00)
        Pb            14.00   207.20000     Pb( 1.00)
        I              7.00   126.90447     I ( 1.00)

      8 Sym. Ops., with inversion, found ( 6 have fractional translation)



   Cartesian axes

     site n.     atom                  positions (alat units)
         1           K   tau(   1) = (   0.2500000   2.0816266   0.6320964  )
         2           K   tau(   2) = (   0.7500000   0.1503315   2.9596679  )
         3           K   tau(   3) = (   0.7500000   1.2663106   2.4279785  )
         4           K   tau(   4) = (   0.2500000   0.9656475   1.1637858  )
         5           Pb  tau(   5) = (   0.2500000   1.4969517   3.3849704  )
         6           Pb  tau(   6) = (   0.7500000   0.7350064   0.2067939  )
         7           Pb  tau(   7) = (   0.7500000   1.8509855   1.5890882  )
         8           Pb  tau(   8) = (   0.2500000   0.3809726   2.0026761  )
         9           I   tau(   9) = (   0.2500000   1.1523770   0.4148043  )
        10           I   tau(  10) = (   0.7500000   1.0795811   3.1769600  )
        11           I   tau(  11) = (   0.7500000   2.1955601   2.2106865  )
        12           I   tau(  12) = (   0.2500000   0.0363980   1.3810778  )
        13           I   tau(  13) = (   0.2500000   1.4648974   1.8542489  )
        14           I   tau(  14) = (   0.7500000   0.7670607   1.7375154  )
        15           I   tau(  15) = (   0.7500000   1.8830397   0.0583668  )
        16           I   tau(  16) = (   0.2500000   0.3489184   3.5333975  )
        17           I   tau(  17) = (   0.2500000   1.7870746   2.8016820  )
        18           I   tau(  18) = (   0.7500000   0.4448835   0.7900823  )
        19           I   tau(  19) = (   0.7500000   1.5608626   1.0057999  )
        20           I   tau(  20) = (   0.2500000   0.6710955   2.5859644  )

     number of k points=   125

     Number of k-points >= 100: set verbosity='high' to print them.

     Dense  grid:   364741 G-vectors     FFT dimensions: (  48, 100, 160)

     Smooth grid:   128895 G-vectors     FFT dimensions: (  32,  72, 120)

     Estimated max dynamical RAM per process >       4.14 GB

     Check: negative core charge=   -0.000002

     Initial potential from superposition of free atoms

     Check: negative core charge=   -0.000002

     Initial potential from superposition of free atoms

     Check: negative core charge=   -0.000002

     Initial potential from superposition of free atoms

     Check: negative core charge=   -0.000002

     Initial potential from superposition of free atoms

     Check: negative core charge=   -0.000002

     Initial potential from superposition of free atoms

     Check: negative core charge=   -0.000002

     Initial potential from superposition of free atoms

     Check: negative core charge=   -0.000002

     Initial potential from superposition of free atoms

     Check: negative core charge=   -0.000002

     Initial potential from superposition of free atoms

     starting charge  175.91637, renormalised to  176.00000

     starting charge  175.91637, renormalised to  176.00000

     starting charge  175.91637, renormalised to  176.00000

     starting charge  175.91637, renormalised to  176.00000

     starting charge  175.91637, renormalised to  176.00000

     starting charge  175.91637, renormalised to  176.00000

     starting charge  175.91637, renormalised to  176.00000

     starting charge  175.91637, renormalised to  176.00000
